 Gaussian 16, Revision C.01,
 Gaussian 16:  ES64L-G16RevC.01  3-Jul-2019

 --------------------------
 #P B3LYP/6-31G(d) Opt Freq
 --------------------------

 --
 G7
 --
 Symbolic Z-matrix:
 Charge =  0 Multiplicity = 1

 SCF Done:  E(RB3LYP) =  -547.893193743     A.U. after   14 cycles
 SCF Done:  E(RB3LYP) =  -547.900218916     A.U. after   12 cycles
 SCF Done:  E(RB3LYP) =  -547.901044515     A.U. after   11 cycles
 SCF Done:  E(RB3LYP) =  -547.901363648     A.U. after   11 cycles
 SCF Done:  E(RB3LYP) =  -547.901909039     A.U. after   11 cycles
 SCF Done:  E(RB3LYP) =  -547.902878774     A.U. after   12 cycles
 SCF Done:  E(RB3LYP) =  -547.903186787     A.U. after   11 cycles
 SCF Done:  E(RB3LYP) =  -547.903419176     A.U. after   10 cycles
 SCF Done:  E(RB3LYP) =  -547.903704872     A.U. after   13 cycles
 SCF Done:  E(RB3LYP) =  -547.904078414     A.U. after   11 cycles
 SCF Done:  E(RB3LYP) =  -547.904087716     A.U. after    9 cycles
 SCF Done:  E(RB3LYP) =  -547.904072439     A.U. after    9 cycles
 SCF Done:  E(RB3LYP) =  -547.904090509     A.U. after    9 cycles
 SCF Done:  E(RB3LYP) =  -547.904091433     A.U. after    8 cycles
 SCF Done:  E(RB3LYP) =  -547.904091946     A.U. after    7 cycles
 SCF Done:  E(RB3LYP) =  -547.904092256     A.U. after    7 cycles
 SCF Done:  E(RB3LYP) =  -547.904092289     A.U. after    7 cycles
 Optimization completed.
    -- Stationary point found.
 Normal termination of Gaussian 16 at Thu Apr 24 17:09:01 2025.

 --------------------------------------------------------------------
 #P Geom=AllCheck Guess=TCheck SCRF=Check GenChk RB3LYP/6-31G(d) Freq
 --------------------------------------------------------------------

 Structure from the checkpoint file:  "G7.chk"
 --
 G7
 --
 Charge =  0 Multiplicity = 1

                         Standard orientation:
 ---------------------------------------------------------------------
 Center     Atomic      Atomic             Coordinates (Angstroms)
 Number     Number       Type             X           Y           Z
 ---------------------------------------------------------------------
      1          6           0        2.308858   -1.675655   -1.433185
      2          6           0        1.904882   -1.233648   -0.043043
      3          6           0        0.671666   -0.360664    0.058989
      4          6           0       -0.495666   -1.031088    0.014034
      5          6           0       -1.960072   -0.607353    0.116358
      6          6           0       -2.826616   -1.817888   -0.304301
      7          6           0       -2.297562   -0.307621    1.600467
      8          6           0       -2.353011    0.590092   -0.808864
      9          6           0       -1.241516    1.567988   -1.213725
     10          6           0       -0.357312    2.022721   -0.044899
     11          6           0        0.909981    1.157705    0.201127
     12          6           0        1.430108    1.467741    1.625956
     13          6           0        1.997955    1.616404   -0.802931
     14          6           0        2.566726   -1.659960    1.039315
     15          1           0        1.499354   -2.254711   -1.896761
     16          1           0        2.497638   -0.822449   -2.095105
     17          1           0        3.208770   -2.299495   -1.410712
     18          1           0       -0.385952   -2.115102   -0.057421
     19          1           0       -2.593052   -2.132094   -1.328694
     20          1           0       -2.661926   -2.676115    0.358678
     21          1           0       -3.892511   -1.563458   -0.265158
     22          1           0       -3.368804   -0.096015    1.714563
     23          1           0       -2.055835   -1.171320    2.231082
     24          1           0       -1.741038    0.548408    1.990379
     25          1           0       -3.156671    1.149479   -0.309825
     26          1           0       -2.797779    0.190702   -1.729790
     27          1           0       -1.714577    2.439051   -1.685477
     28          1           0       -0.615493    1.110184   -1.989665
     29          1           0       -0.009083    3.049208   -0.218511
     30          1           0       -0.960802    2.075801    0.868483
     31          1           0        0.721004    1.128766    2.389603
     32          1           0        2.393990    0.986935    1.817005
     33          1           0        1.564911    2.550382    1.745712
     34          1           0        1.674321    1.487991   -1.842213
     35          1           0        2.931562    1.062953   -0.665263
     36          1           0        2.216557    2.680016   -0.651247
     37          1           0        3.436749   -2.307618    0.952535
     38          1           0        2.258134   -1.394141    2.046005
 ---------------------------------------------------------------------

 SCF Done:  E(RB3LYP) =  -547.904092289     A.U. after    1 cycles

 The electronic state is 1-A.
 Alpha  occ. eigenvalues --  -10.19855 -10.19649 -10.19064 -10.18456 -10.17644
 Alpha  occ. eigenvalues --  -10.17403 -10.17342 -10.17313 -10.17283 -10.16952
 Alpha  occ. eigenvalues --  -10.16940 -10.16899 -10.16800 -10.16794  -0.84232
 Alpha  occ. eigenvalues --   -0.80638  -0.78979  -0.74712  -0.71520  -0.68275
 Alpha  occ. eigenvalues --   -0.67904  -0.67281  -0.66724  -0.60852  -0.59647
 Alpha  occ. eigenvalues --   -0.54859  -0.52474  -0.48914  -0.46603  -0.46303
 Alpha  occ. eigenvalues --   -0.44593  -0.42815  -0.42668  -0.42394  -0.41504
 Alpha  occ. eigenvalues --   -0.40951  -0.40651  -0.40189  -0.38268  -0.37764
 Alpha  occ. eigenvalues --   -0.37383  -0.36929  -0.36113  -0.35492  -0.35111
 Alpha  occ. eigenvalues --   -0.34500  -0.33124  -0.32639  -0.31286  -0.30275
 Alpha  occ. eigenvalues --   -0.29444  -0.28949  -0.24456  -0.22737
 Alpha virt. eigenvalues --    0.01973   0.03035   0.07815   0.10168   0.10927
 Alpha virt. eigenvalues --    0.11649   0.12730   0.13496   0.13753   0.14070
 Alpha virt. eigenvalues --    0.15079   0.15414   0.15706   0.16103   0.16903

 Mulliken charges:
               1
     1  C   -0.500967
     2  C    0.126916
     3  C    0.087953
     4  C   -0.187130
     5  C    0.099995
     6  C   -0.465305
     7  C   -0.448355
     8  C   -0.276151
     9  C   -0.266895
    10  C   -0.278429
    11  C    0.051200
    12  C   -0.455509
    13  C   -0.463621
    14  C   -0.379095
    15  H    0.156596
    16  H    0.156298
    17  H    0.147202
    18  H    0.119702
    19  H    0.142490
    20  H    0.139145
    21  H    0.139742
    22  H    0.135165
    23  H    0.140821
    24  H    0.151548
    25  H    0.128997
    26  H    0.130845
    27  H    0.127824
    28  H    0.137661
    29  H    0.127687
    30  H    0.134633
    31  H    0.143832
    32  H    0.151540
    33  H    0.136564
    34  H    0.145739
    35  H    0.154511
    36  H    0.138192
    37  H    0.129659
    38  H    0.139000
 Sum of Mulliken charges =  -0.00000

 Dipole moment (field-independent basis, Debye):
    X=             -0.2051    Y=              0.2812    Z=             -0.3089  Tot=              0.4654
 Quadrupole moment (field-independent basis, Debye-Ang):
   XX=            -89.3031   YY=            -89.4003   ZZ=            -89.8385
   XY=             -0.6093   XZ=             -0.6150   YZ=              0.5124

  Exact polarizability:     162.871      -1.021     138.532       5.082      -2.616     129.684
 Approx polarizability:     220.027       0.642     195.850      10.412      -4.552     198.323

                      1                      2                      3
                      A                      A                      A
 Frequencies --     48.8210                71.5459               113.0424
 Red. masses --      2.9941                 2.9124                 2.6523
 Frc consts  --      0.0042                 0.0088                 0.0200
 IR Inten    --      0.0173                 0.0952                 0.0783

                      4                      5                      6
                      A                      A                      A
 Frequencies --    125.2975               169.3067               194.9944
 Red. masses --      2.4688                 2.2035                 1.1896
 Frc consts  --      0.0228                 0.0372                 0.0267
 IR Inten    --      0.0488                 0.0725                 0.2123

                      7                      8                      9
                      A                      A                      A
 Frequencies --    203.6084               226.8916               251.1036
 Red. masses --      2.2624                 1.7612                 2.1084
 Frc consts  --      0.0553                 0.0534                 0.0783
 IR Inten    --      0.1274                 0.0931                 0.0578

                     10                     11                     12
                      A                      A                      A
 Frequencies --    258.1446               272.6273               283.3993
 Red. masses --      1.5226                 1.7750                 1.5390
 Frc consts  --      0.0598                 0.0777                 0.0728
 IR Inten    --      0.0789                 0.3598                 0.3661

                     13                     14                     15
                      A                      A                      A
 Frequencies --    289.5006               303.8257               320.3855
 Red. masses --      1.6165                 1.9431                 1.2896
 Frc consts  --      0.0798                 0.1057                 0.0780
 IR Inten    --      0.1518                 0.2003                 0.1391

                     16                     17                     18
                      A                      A                      A
 Frequencies --    320.8176               365.4805               371.8855
 Red. masses --      1.4704                 1.9981                 2.2317
 Frc consts  --      0.0892                 0.1572                 0.1818
 IR Inten    --      0.0345                 0.0857                 0.2177

                     19                     20                     21
                      A                      A                      A
 Frequencies --    391.3667               419.2177               433.3745
 Red. masses --      2.4205                 2.6946                 2.4887
 Frc consts  --      0.2184                 0.2790                 0.2754
 IR Inten    --      0.2181                 0.2588                 0.5663

                     22                     23                     24
                      A                      A                      A
 Frequencies --    454.9129               484.2201               532.7139
 Red. masses --      2.1256                 2.8965                 2.0759
 Frc consts  --      0.2592                 0.4001                 0.3471
 IR Inten    --      0.5671                 0.5567                 1.8407

                     25                     26                     27
                      A                      A                      A
 Frequencies --    565.0503               578.3153               663.7378
 Red. masses --      2.6938                 2.6242                 2.7006
 Frc consts  --      0.5067                 0.5171                 0.7010
 IR Inten    --      4.7530                 0.0336                 0.7406

                     28                     29                     30
                      A                      A                      A
 Frequencies --    687.5584               729.0455               773.7270
 Red. masses --      3.8355                 1.5420                 1.8377
 Frc consts  --      1.0683                 0.4829                 0.6482
 IR Inten    --      5.6702                 0.8634                 0.3035

                     31                     32                     33
                      A                      A                      A
 Frequencies --    828.9031               848.8977               878.7139
 Red. masses --      1.6887                 2.5975                 2.3479
 Frc consts  --      0.6836                 1.1029                 1.0681
 IR Inten    --      2.5399                 0.0892                 0.9720

                     34                     35                     36
                      A                      A                      A
 Frequencies --    885.7976               905.1261               925.9996
 Red. masses --      1.6550                 2.3834                 1.3466
 Frc consts  --      0.7651                 1.1504                 0.6803
 IR Inten    --      7.0970                 1.2913                34.1794

                     37                     38                     39
                      A                      A                      A
 Frequencies --    940.2564               946.4995               948.8424
 Red. masses --      1.8602                 1.6596                 1.5334
 Frc consts  --      0.9690                 0.8760                 0.8134
 IR Inten    --      1.0562                 0.3175                 0.5403

                     40                     41                     42
                      A                      A                      A
 Frequencies --    975.6756               991.1211              1009.3032
 Red. masses --      1.9180                 1.9761                 1.7166
 Frc consts  --      1.0757                 1.1437                 1.0303
 IR Inten    --      4.6378                 4.9243                 4.2918

                     43                     44                     45
                      A                      A                      A
 Frequencies --   1021.0673              1030.0391              1044.6024
 Red. masses --      1.5909                 1.5279                 1.3593
 Frc consts  --      0.9772                 0.9551                 0.8739
 IR Inten    --      0.3190                 0.9355                 3.8949

                     46                     47                     48
                      A                      A                      A
 Frequencies --   1056.6801              1066.7988              1090.8505
 Red. masses --      1.5389                 1.6645                 1.5388
 Frc consts  --      1.0124                 1.1161                 1.0789
 IR Inten    --      3.9624                 2.2207                 0.1636

                     49                     50                     51
                      A                      A                      A
 Frequencies --   1105.4650              1131.8334              1185.5132
 Red. masses --      2.1233                 1.6638                 2.0904
 Frc consts  --      1.5288                 1.2558                 1.7310
 IR Inten    --      1.3149                 4.0188                 7.8624

                     52                     53                     54
                      A                      A                      A
 Frequencies --   1206.0888              1210.2739              1238.2762
 Red. masses --      2.1413                 2.1660                 2.1399
 Frc consts  --      1.8352                 1.8693                 1.9333
 IR Inten    --      7.4426                 1.2112                 0.9093

                     55                     56                     57
                      A                      A                      A
 Frequencies --   1255.7610              1281.5027              1297.5837
 Red. masses --      2.6348                 1.8758                 2.9216
 Frc consts  --      2.4480                 1.8150                 2.8983
 IR Inten    --      1.9138                 5.2097                 9.4905

                     58                     59                     60
                      A                      A                      A
 Frequencies --   1304.3095              1336.1356              1383.7339
 Red. masses --      1.5319                 1.2957                 1.3781
 Frc consts  --      1.5355                 1.3629                 1.5546
 IR Inten    --      3.7099                 0.4584                 1.7526

                     61                     62                     63
                      A                      A                      A
 Frequencies --   1397.5382              1414.4424              1419.3180
 Red. masses --      1.3467                 1.4085                 1.2148
 Frc consts  --      1.5497                 1.6603                 1.4418
 IR Inten    --      0.4630                 1.9083                 2.0428

                     64                     65                     66
                      A                      A                      A
 Frequencies --   1423.4817              1425.9785              1435.0139
 Red. masses --      1.2124                 1.2786                 1.2199
 Frc consts  --      1.4474                 1.5319                 1.4801
 IR Inten    --      5.8060                 1.8599                 6.4628

                     67                     68                     69
                      A                      A                      A
 Frequencies --   1445.5756              1452.4560              1465.2720
 Red. masses --      1.2232                 1.2429                 1.2253
 Frc consts  --      1.5061                 1.5449                 1.5499
 IR Inten    --      2.1217                 5.8979                 1.1907

                     70                     71                     72
                      A                      A                      A
 Frequencies --   1505.5742              1510.5455              1512.7193
 Red. masses --      1.0475                 1.0629                 1.0533
 Frc consts  --      1.3990                 1.4290                 1.4201
 IR Inten    --      5.2402                 1.3004                 1.3244

                     73                     74                     75
                      A                      A                      A
 Frequencies --   1516.8656              1520.1431              1522.8508
 Red. masses --      1.0516                 1.0672                 1.0539
 Frc consts  --      1.4255                 1.4530                 1.4400
 IR Inten    --      0.3268                 2.2641                 4.2553

                     76                     77                     78
                      A                      A                      A
 Frequencies --   1528.2110              1530.0293              1531.1197
 Red. masses --      1.0559                 1.0847                 1.0515
 Frc consts  --      1.4528                 1.4961                 1.4524
 IR Inten    --      2.0888                 2.9437                 3.0233

                     79                     80                     81
                      A                      A                      A
 Frequencies --   1535.4348              1538.5882              1543.1723
 Red. masses --      1.0563                 1.0577                 1.0619
 Frc consts  --      1.4672                 1.4752                 1.4899
 IR Inten    --      3.8077                 4.4303                 1.7897

                     82                     83                     84
                      A                      A                      A
 Frequencies --   1549.4478              1690.3293              1717.0062
 Red. masses --      1.0625                 7.4093                 5.0905
 Frc consts  --      1.5029                12.4730                 8.8420
 IR Inten    --     11.9638                 3.4434                11.6226

                     85                     86                     87
                      A                      A                      A
 Frequencies --   3023.6735              3035.6255              3036.6183
 Red. masses --      1.0607                 1.0454                 1.0548
 Frc consts  --      5.7138                 5.6757                 5.7309
 IR Inten    --     18.5036                 6.2252                25.7522

                     88                     89                     90
                      A                      A                      A
 Frequencies --   3039.8170              3041.7802              3042.2095
 Red. masses --      1.0370                 1.0418                 1.0401
 Frc consts  --      5.6456                 5.6794                 5.6717
 IR Inten    --     17.6768                38.7070                39.9046

                     91                     92                     93
                      A                      A                      A
 Frequencies --   3044.6917              3051.9407              3058.5858
 Red. masses --      1.0513                 1.0508                 1.0939
 Frc consts  --      5.7422                 5.7667                 6.0291
 IR Inten    --     29.9849                38.7121                32.9768

                     94                     95                     96
                      A                      A                      A
 Frequencies --   3075.8029              3084.7212              3095.0287
 Red. masses --      1.1025                 1.0968                 1.0977
 Frc consts  --      6.1455                 6.1491                 6.1955
 IR Inten    --     30.6885                59.0486                21.4306

                     97                     98                     99
                      A                      A                      A
 Frequencies --   3100.6816              3105.5425              3106.9869
 Red. masses --      1.1012                 1.1007                 1.1019
 Frc consts  --      6.2380                 6.2545                 6.2674
 IR Inten    --      6.5760                15.4718                54.4385

                    100                    101                    102
                      A                      A                      A
 Frequencies --   3108.7371              3110.5178              3117.9624
 Red. masses --      1.1011                 1.1012                 1.0878
 Frc consts  --      6.2697                 6.2776                 6.2308
 IR Inten    --     38.5676                51.8562                36.1647

                    103                    104                    105
                      A                      A                      A
 Frequencies --   3121.6756              3130.0744              3133.8853
 Red. masses --      1.1028                 1.1012                 1.1001
 Frc consts  --      6.3315                 6.3568                 6.3659
 IR Inten    --     28.9573                 8.8484                40.6486

                    106                    107                    108
                      A                      A                      A
 Frequencies --   3142.0651              3156.3392              3237.7609
 Red. masses --      1.0968                 1.0611                 1.1144
 Frc consts  --      6.3797                 6.2286                 6.8834
 IR Inten    --     27.4267                16.8513                19.3112

 - Thermochemistry -
 -------------------
 Temperature   298.150 Kelvin.  Pressure   1.00000 Atm.
 Atom     1 has atomic number  6 and mass  12.00000

 Molecular mass:   192.18780 amu.
 Principal axes and moments of inertia in atomic units:
                           1         2         3
     Eigenvalues --  2045.271323185.969853863.60754
           X            0.99985   0.01598  -0.00681
           Y           -0.01588   0.99977   0.01443
           Z            0.00704  -0.01432   0.99987
 This molecule is an asymmetric top.
 Rotational symmetry number  1.
 Warning -- assumption of classical behavior for rotation
           may cause significant error
 Rotational temperatures (Kelvin)      0.04235     0.02719     0.02242
 Rotational constants (GHZ):           0.88240     0.56647     0.46711
 Zero-point vibrational energy     918549.0 (Joules/Mol)
                                  219.53849 (Kcal/Mol)
 Warning -- explicit consideration of  26 degrees of freedom as
           vibrations may cause significant error
 Vibrational temperatures:     70.24   102.94   162.64   180.28   243.59
          (Kelvin)            280.55   292.95   326.45   361.28   371.41
                              392.25   407.75   416.53   437.14   460.96
                              461.58   525.84   535.06   563.09   603.16
                              623.53   654.52   696.68   766.46   812.98
                              832.07   954.97   989.24  1048.93  1113.22
                             1192.61  1221.37  1264.27  1274.47  1302.27
                             1332.31  1352.82  1361.80  1365.17  1403.78
                             1426.00  1452.16  1469.09  1482.00  1502.95
                             1520.33  1534.89  1569.49  1590.52  1628.46
                             1705.69  1735.29  1741.31  1781.60  1806.76
                             1843.80  1866.93  1876.61  1922.40  1990.88
                             2010.75  2035.07  2042.08  2048.07  2051.66
                             2064.66  2079.86  2089.76  2108.20  2166.19
                             2173.34  2176.47  2182.43  2187.15  2191.04
                             2198.75  2201.37  2202.94  2209.15  2213.69
                             2220.28  2229.31  2432.01  2470.39  4350.39
                             4367.59  4369.02  4373.62  4376.44  4377.06
                             4380.63  4391.06  4400.62  4425.39  4438.23
                             4453.06  4461.19  4468.18  4470.26  4472.78
                             4475.34  4486.05  4491.39  4503.48  4508.96
                             4520.73  4541.27  4658.42

 Zero-point correction=                           0.349857 (Hartree/Particle)
 Thermal correction to Energy=                    0.365599
 Thermal correction to Enthalpy=                  0.366543
 Thermal correction to Gibbs Free Energy=         0.309070
 Sum of electronic and zero-point Energies=           -547.554235
 Sum of electronic and thermal Energies=              -547.538493
 Sum of electronic and thermal Enthalpies=            -547.537549
 Sum of electronic and thermal Free Energies=         -547.595022

                     E (Thermal)             CV                S
                      KCal/Mol        Cal/Mol-Kelvin    Cal/Mol-Kelvin
 Total                  229.417             62.939            120.962
 Electronic               0.000              0.000              0.000
 Translational            0.889              2.981             41.665
 Rotational               0.889              2.981             31.599
 Vibrational            227.639             56.978             47.698
 Vibration     1          0.595              1.978              4.865
 Vibration     2          0.598              1.968              4.110
 Vibration     3          0.607              1.939              3.216
 Vibration     4          0.610              1.928              3.017
 Vibration     5          0.625              1.880              2.443
 Vibration     6          0.636              1.847              2.180
 Vibration     7          0.639              1.835              2.100
 Vibration     8          0.651              1.800              1.903
 Vibration     9          0.663              1.761              1.723
 Vibration    10          0.667              1.749              1.674
 Vibration    11          0.676              1.724              1.579
 Vibration    12          0.682              1.704              1.513
 Vibration    13          0.686              1.693              1.477
 Vibration    14          0.695              1.666              1.396
 Vibration    15          0.706              1.635              1.308
 Vibration    16          0.706              1.634              1.306
 Vibration    17          0.739              1.543              1.099
 Vibration    18          0.744              1.530              1.072
 Vibration    19          0.759              1.489              0.995
 Vibration    20          0.782              1.428              0.895
 Vibration    21          0.794              1.398              0.848
 Vibration    22          0.813              1.350              0.781
 Vibration    23          0.840              1.285              0.699
 Vibration    24          0.888              1.178              0.581
 Vibration    25          0.921              1.107              0.514
 Vibration    26          0.935              1.078              0.488

 Optimization completed.
    -- Stationary point found.
 Normal termination of Gaussian 16 at Thu Apr 24 17:27:00 2025.
